 BEGIN_INFO
   Fermi Energy:     0.397409
 END_INFO
 BEGIN_BLOCK_BANDGRID_3D
 band_energies
 BANDGRID_3D_BANDS
 1
 38 38 29
      0.00000000      0.00000000      0.00000000
      0.13753600      0.00000000      0.00000000
      0.06876800      0.11910900      0.00000000
      0.00000000      0.00000000      0.10412200
 BAND:   17
 4.055690e-01 4.059810e-01 4.072120e-01 4.092450e-01 4.120890e-01 4.156220e-01
 4.198190e-01 4.245840e-01 4.297840e-01 4.352350e-01 4.406650e-01 4.456920e-01
 4.498880e-01 4.527110e-01 4.537120e-01 4.527110e-01 4.498880e-01 4.456920e-01
 4.406650e-01 4.352350e-01 4.297840e-01 4.245840e-01 4.198190e-01 4.156220e-01
 4.120890e-01 4.092450e-01 4.072120e-01 4.059810e-01 4.055690e-01 3.890140e-01
 3.893880e-01 3.905040e-01 3.923360e-01 3.948500e-01 3.980040e-01 4.017120e-01
 4.058530e-01 4.102950e-01 4.148510e-01 4.192620e-01 4.232370e-01 4.264400e-01
 4.285330e-01 4.292620e-01 4.285330e-01 4.264400e-01 4.232370e-01 4.192620e-01
 4.148510e-01 4.102950e-01 4.058530e-01 4.017120e-01 3.980040e-01 3.948500e-01
 3.923360e-01 3.905040e-01 3.893880e-01 3.890140e-01 3.686520e-01 3.635160e-01
 3.644790e-01 3.661470e-01 3.684350e-01 3.712850e-01 3.746270e-01 3.783310e-01
 3.822920e-01 3.862920e-01 3.901320e-01 3.935480e-01 3.962670e-01 3.980290e-01
 3.986390e-01 3.980290e-01 3.962670e-01 3.935480e-01 3.901320e-01 3.862920e-01
 3.822920e-01 3.783310e-01 3.746270e-01 3.712850e-01 3.684350e-01 3.661470e-01
 3.644790e-01 3.635160e-01 3.686520e-01 3.671500e-01 3.606280e-01 3.463130e-01
 3.395170e-01 3.413840e-01 3.439180e-01 3.468980e-01 3.502110e-01 3.536990e-01
 3.572240e-01 3.605620e-01 3.635020e-01 3.658130e-01 3.672990e-01 3.678120e-01
 3.672990e-01 3.658130e-01 3.635020e-01 3.605620e-01 3.572240e-01 3.536990e-01
 3.502110e-01 3.468980e-01 3.439180e-01 3.413840e-01 3.395170e-01 3.463130e-01
 3.606280e-01 3.671500e-01 3.651980e-01 3.595460e-01 3.464370e-01 3.306660e-01
 3.177910e-01 3.174360e-01 3.197030e-01 3.224860e-01 3.254610e-01 3.284570e-01
 3.312910e-01 3.337830e-01 3.357150e-01 3.369520e-01 3.373770e-01 3.369520e-01
 3.357150e-01 3.337830e-01 3.312910e-01 3.284570e-01 3.254610e-01 3.224860e-01
 3.197030e-01 3.174360e-01 3.177910e-01 3.306660e-01 3.464370e-01 3.595460e-01
 3.651980e-01 3.628480e-01 3.581450e-01 3.465860e-01 3.319520e-01 3.165190e-01
 3.026150e-01 2.961070e-01 2.964290e-01 2.983410e-01 3.005900e-01 3.027970e-01
 3.047570e-01 3.063060e-01 3.072800e-01 3.076160e-01 3.072800e-01 3.063060e-01
 3.047570e-01 3.027970e-01 3.005900e-01 2.983410e-01 2.964290e-01 2.961070e-01
 3.026150e-01 3.165190e-01 3.319520e-01 3.465860e-01 3.581450e-01 3.628480e-01
 3.602920e-01 3.564470e-01 3.465750e-01 3.334740e-01 3.191250e-01 3.047820e-01
 2.915340e-01 2.811650e-01 2.761140e-01 2.752740e-01 2.759390e-01 2.769430e-01
 2.778620e-01 2.784760e-01 2.787060e-01 2.784760e-01 2.778620e-01 2.769430e-01
 2.759390e-01 2.752740e-01 2.761140e-01 2.811650e-01 2.915340e-01 3.047820e-01
 3.191250e-01 3.334740e-01 3.465750e-01 3.564470e-01 3.602920e-01 3.576600e-01
 3.545620e-01 3.463570e-01 3.350300e-01 3.221700e-01 3.089190e-01 2.959690e-01
 2.838350e-01 2.729990e-01 2.639700e-01 2.573480e-01 2.534250e-01 2.516130e-01
 2.509280e-01 2.507540e-01 2.509280e-01 2.516130e-01 2.534250e-01 2.573480e-01
 2.639700e-01 2.729990e-01 2.838350e-01 2.959690e-01 3.089190e-01 3.221700e-01
 3.350300e-01 3.463570e-01 3.545620e-01 3.576600e-01 3.550450e-01 3.526400e-01
 3.460230e-01 3.365100e-01 3.254080e-01 3.136300e-01 3.018130e-01 2.903720e-01
 2.795770e-01 2.696510e-01 2.607370e-01 2.529790e-01 2.465700e-01 2.419650e-01
 2.401560e-01 2.419650e-01 2.465700e-01 2.529790e-01 2.607370e-01 2.696510e-01
 2.795770e-01 2.903720e-01 3.018130e-01 3.136300e-01 3.254080e-01 3.365100e-01
 3.460230e-01 3.526400e-01 3.550450e-01 3.525770e-01 3.507540e-01 3.455940e-01
 3.379620e-01 3.287180e-01 3.186630e-01 3.082950e-01 2.980040e-01 2.880760e-01
 2.787720e-01 2.703240e-01 2.630330e-01 2.572700e-01 2.535060e-01 2.521900e-01
 2.535060e-01 2.572700e-01 2.630330e-01 2.703240e-01 2.787720e-01 2.880760e-01
 2.980040e-01 3.082950e-01 3.186630e-01 3.287180e-01 3.379620e-01 3.455940e-01
 3.507540e-01 3.525770e-01 3.503080e-01 3.489920e-01 3.451800e-01 3.393560e-01
 3.320850e-01 3.238770e-01 3.151740e-01 3.062710e-01 2.974400e-01 2.890050e-01
 2.812600e-01 2.745600e-01 2.693170e-01 2.659500e-01 2.647840e-01 2.659500e-01
 2.693170e-01 2.745600e-01 2.812600e-01 2.890050e-01 2.974400e-01 3.062710e-01
 3.151740e-01 3.238770e-01 3.320850e-01 3.393560e-01 3.451800e-01 3.489920e-01
 3.503080e-01 3.482710e-01 3.473880e-01 3.448130e-01 3.407360e-01 3.354400e-01
 3.292260e-01 3.222990e-01 3.149340e-01 3.073410e-01 2.998460e-01 2.928060e-01
 2.866510e-01 2.818210e-01 2.787180e-01 2.776480e-01 2.787180e-01 2.818210e-01
 2.866510e-01 2.928060e-01 2.998460e-01 3.073410e-01 3.149340e-01 3.222990e-01
 3.292260e-01 3.354400e-01 3.407360e-01 3.448130e-01 3.473880e-01 3.482710e-01
 3.465440e-01 3.460380e-01 3.445590e-01 3.421050e-01 3.387770e-01 3.345970e-01
 3.295880e-01 3.238330e-01 3.175480e-01 3.109930e-01 3.046270e-01 2.989140e-01
 2.943800e-01 2.914550e-01 2.904430e-01 2.914550e-01 2.943800e-01 2.989140e-01
 3.046270e-01 3.109930e-01 3.175480e-01 3.238330e-01 3.295880e-01 3.345970e-01
 3.387770e-01 3.421050e-01 3.445590e-01 3.460380e-01 3.465440e-01 3.451130e-01
 3.449420e-01 3.444070e-01 3.434770e-01 3.420240e-01 3.398710e-01 3.368790e-01
 3.328480e-01 3.278760e-01 3.222470e-01 3.164060e-01 3.110030e-01 3.066280e-01
 3.037730e-01 3.027860e-01 3.037730e-01 3.066280e-01 3.110030e-01 3.164060e-01
 3.222470e-01 3.278760e-01 3.328480e-01 3.368790e-01 3.398710e-01 3.420240e-01
 3.434770e-01 3.444070e-01 3.449420e-01 3.451130e-01 3.439770e-01 3.440910e-01
 3.443960e-01 3.448070e-01 3.450990e-01 3.449490e-01 3.439920e-01 3.396380e-01
 3.351530e-01 3.310570e-01 3.274970e-01 3.225450e-01 3.181440e-01 3.152530e-01
 3.142410e-01 3.152530e-01 3.181440e-01 3.225450e-01 3.274970e-01 3.310570e-01
 3.351530e-01 3.396380e-01 3.439920e-01 3.449490e-01 3.450990e-01 3.448070e-01
 3.443960e-01 3.440910e-01 3.439770e-01 3.431160e-01 3.434630e-01 3.444830e-01
 3.460500e-01 3.478770e-01 3.455990e-01 3.407110e-01 3.358410e-01 3.311820e-01
 3.269310e-01 3.232420e-01 3.202550e-01 3.180560e-01 3.167110e-01 3.162510e-01
 3.167110e-01 3.180560e-01 3.202550e-01 3.232420e-01 3.269310e-01 3.311820e-01
 3.358410e-01 3.407110e-01 3.455990e-01 3.478770e-01 3.460500e-01 3.444830e-01
 3.434630e-01 3.431160e-01 3.425230e-01 3.430420e-01 3.445980e-01 3.470660e-01
 3.477570e-01 3.430250e-01 3.379810e-01 3.329660e-01 3.281770e-01 3.238140e-01
 3.200400e-01 3.169750e-01 3.147240e-01 3.133400e-01 3.128760e-01 3.133400e-01
 3.147240e-01 3.169750e-01 3.200400e-01 3.238140e-01 3.281770e-01 3.329660e-01
 3.379810e-01 3.430250e-01 3.477570e-01 3.470660e-01 3.445980e-01 3.430420e-01
 3.425230e-01 3.421220e-01 3.427810e-01 3.447360e-01 3.478320e-01 3.461300e-01
 3.412890e-01 3.361440e-01 3.310350e-01 3.261610e-01 3.217260e-01 3.178920e-01
 3.147770e-01 3.124950e-01 3.110910e-01 3.106230e-01 3.110910e-01 3.124950e-01
 3.147770e-01 3.178920e-01 3.217260e-01 3.261610e-01 3.310350e-01 3.361440e-01
 3.412890e-01 3.461300e-01 3.478320e-01 3.447360e-01 3.427810e-01 3.421220e-01
 3.419170e-01 3.426260e-01 3.448170e-01 3.482480e-01 3.453080e-01 3.404570e-01
 3.352200e-01 3.300660e-01 3.251490e-01 3.206780e-01 3.168140e-01 3.136850e-01
 3.113680e-01 3.099640e-01 3.094930e-01 3.099640e-01 3.113680e-01 3.136850e-01
 3.168140e-01 3.206780e-01 3.251490e-01 3.300660e-01 3.352200e-01 3.404570e-01
 3.453080e-01 3.482480e-01 3.448170e-01 3.426260e-01 3.419170e-01 3.419170e-01
 3.426260e-01 3.448170e-01 3.482480e-01 3.453080e-01 3.404570e-01 3.352200e-01
 3.300660e-01 3.251490e-01 3.206780e-01 3.168140e-01 3.136850e-01 3.113680e-01
 3.099640e-01 3.094930e-01 3.099640e-01 3.113680e-01 3.136850e-01 3.168140e-01
 3.206780e-01 3.251490e-01 3.300660e-01 3.352200e-01 3.404570e-01 3.453080e-01
 3.482480e-01 3.448170e-01 3.426260e-01 3.419170e-01 3.421220e-01 3.427810e-01
 3.447360e-01 3.478320e-01 3.461300e-01 3.412890e-01 3.361440e-01 3.310350e-01
 3.261610e-01 3.217260e-01 3.178920e-01 3.147770e-01 3.124950e-01 3.110910e-01
 3.106230e-01 3.110910e-01 3.124950e-01 3.147770e-01 3.178920e-01 3.217260e-01
 3.261610e-01 3.310350e-01 3.361440e-01 3.412890e-01 3.461300e-01 3.478320e-01
 3.447360e-01 3.427810e-01 3.421220e-01 3.425230e-01 3.430420e-01 3.445980e-01
 3.470660e-01 3.477570e-01 3.430250e-01 3.379810e-01 3.329660e-01 3.281770e-01
 3.238140e-01 3.200400e-01 3.169750e-01 3.147240e-01 3.133400e-01 3.128760e-01
 3.133400e-01 3.147240e-01 3.169750e-01 3.200400e-01 3.238140e-01 3.281770e-01
 3.329660e-01 3.379810e-01 3.430250e-01 3.477570e-01 3.470660e-01 3.445980e-01
 3.430420e-01 3.425230e-01 3.431160e-01 3.434630e-01 3.444830e-01 3.460500e-01
 3.478770e-01 3.455990e-01 3.407110e-01 3.358410e-01 3.311820e-01 3.269310e-01
 3.232420e-01 3.202550e-01 3.180560e-01 3.167110e-01 3.162510e-01 3.167110e-01
 3.180560e-01 3.202550e-01 3.232420e-01 3.269310e-01 3.311820e-01 3.358410e-01
 3.407110e-01 3.455990e-01 3.478770e-01 3.460500e-01 3.444830e-01 3.434630e-01
 3.431160e-01 3.439770e-01 3.440910e-01 3.443960e-01 3.448070e-01 3.450990e-01
 3.449490e-01 3.439920e-01 3.396380e-01 3.351530e-01 3.310570e-01 3.274970e-01
 3.225450e-01 3.181440e-01 3.152530e-01 3.142410e-01 3.152530e-01 3.181440e-01
 3.225450e-01 3.274970e-01 3.310570e-01 3.351530e-01 3.396380e-01 3.439920e-01
 3.449490e-01 3.450990e-01 3.448070e-01 3.443960e-01 3.440910e-01 3.439770e-01
 3.451130e-01 3.449420e-01 3.444070e-01 3.434770e-01 3.420240e-01 3.398710e-01
 3.368790e-01 3.328480e-01 3.278760e-01 3.222470e-01 3.164060e-01 3.110030e-01
 3.066280e-01 3.037730e-01 3.027860e-01 3.037730e-01 3.066280e-01 3.110030e-01
 3.164060e-01 3.222470e-01 3.278760e-01 3.328480e-01 3.368790e-01 3.398710e-01
 3.420240e-01 3.434770e-01 3.444070e-01 3.449420e-01 3.451130e-01 3.465440e-01
 3.460380e-01 3.445590e-01 3.421050e-01 3.387770e-01 3.345970e-01 3.295880e-01
 3.238330e-01 3.175480e-01 3.109930e-01 3.046270e-01 2.989140e-01 2.943800e-01
 2.914550e-01 2.904430e-01 2.914550e-01 2.943800e-01 2.989140e-01 3.046270e-01
 3.109930e-01 3.175480e-01 3.238330e-01 3.295880e-01 3.345970e-01 3.387770e-01
 3.421050e-01 3.445590e-01 3.460380e-01 3.465440e-01 3.482710e-01 3.473880e-01
 3.448130e-01 3.407360e-01 3.354400e-01 3.292260e-01 3.222990e-01 3.149340e-01
 3.073410e-01 2.998460e-01 2.928060e-01 2.866510e-01 2.818210e-01 2.787180e-01
 2.776480e-01 2.787180e-01 2.818210e-01 2.866510e-01 2.928060e-01 2.998460e-01
 3.073410e-01 3.149340e-01 3.222990e-01 3.292260e-01 3.354400e-01 3.407360e-01
 3.448130e-01 3.473880e-01 3.482710e-01 3.503080e-01 3.489920e-01 3.451800e-01
 3.393560e-01 3.320850e-01 3.238770e-01 3.151740e-01 3.062710e-01 2.974400e-01
 2.890050e-01 2.812600e-01 2.745600e-01 2.693170e-01 2.659500e-01 2.647840e-01
 2.659500e-01 2.693170e-01 2.745600e-01 2.812600e-01 2.890050e-01 2.974400e-01
 3.062710e-01 3.151740e-01 3.238770e-01 3.320850e-01 3.393560e-01 3.451800e-01
 3.489920e-01 3.503080e-01 3.525770e-01 3.507540e-01 3.455940e-01 3.379620e-01
 3.287180e-01 3.186630e-01 3.082950e-01 2.980040e-01 2.880760e-01 2.787720e-01
 2.703240e-01 2.630330e-01 2.572700e-01 2.535060e-01 2.521900e-01 2.535060e-01
 2.572700e-01 2.630330e-01 2.703240e-01 2.787720e-01 2.880760e-01 2.980040e-01
 3.082950e-01 3.186630e-01 3.287180e-01 3.379620e-01 3.455940e-01 3.507540e-01
 3.525770e-01 3.550450e-01 3.526400e-01 3.460230e-01 3.365100e-01 3.254080e-01
 3.136300e-01 3.018130e-01 2.903720e-01 2.795770e-01 2.696510e-01 2.607370e-01
 2.529790e-01 2.465700e-01 2.419650e-01 2.401560e-01 2.419650e-01 2.465700e-01
 2.529790e-01 2.607370e-01 2.696510e-01 2.795770e-01 2.903720e-01 3.018130e-01
 3.136300e-01 3.254080e-01 3.365100e-01 3.460230e-01 3.526400e-01 3.550450e-01
 3.576600e-01 3.545620e-01 3.463570e-01 3.350300e-01 3.221700e-01 3.089190e-01
 2.959690e-01 2.838350e-01 2.729990e-01 2.639700e-01 2.573480e-01 2.534250e-01
 2.516130e-01 2.509280e-01 2.507540e-01 2.509280e-01 2.516130e-01 2.534250e-01
 2.573480e-01 2.639700e-01 2.729990e-01 2.838350e-01 2.959690e-01 3.089190e-01
 3.221700e-01 3.350300e-01 3.463570e-01 3.545620e-01 3.576600e-01 3.602920e-01
 3.564470e-01 3.465750e-01 3.334740e-01 3.191250e-01 3.047820e-01 2.915340e-01
 2.811650e-01 2.761140e-01 2.752740e-01 2.759390e-01 2.769430e-01 2.778620e-01
 2.784760e-01 2.787060e-01 2.784760e-01 2.778620e-01 2.769430e-01 2.759390e-01
 2.752740e-01 2.761140e-01 2.811650e-01 2.915340e-01 3.047820e-01 3.191250e-01
 3.334740e-01 3.465750e-01 3.564470e-01 3.602920e-01 3.628480e-01 3.581450e-01
 3.465860e-01 3.319520e-01 3.165190e-01 3.026150e-01 2.961070e-01 2.964290e-01
 2.983410e-01 3.005900e-01 3.027970e-01 3.047570e-01 3.063060e-01 3.072800e-01
 3.076160e-01 3.072800e-01 3.063060e-01 3.047570e-01 3.027970e-01 3.005900e-01
 2.983410e-01 2.964290e-01 2.961070e-01 3.026150e-01 3.165190e-01 3.319520e-01
 3.465860e-01 3.581450e-01 3.628480e-01 3.651980e-01 3.595460e-01 3.464370e-01
 3.306660e-01 3.177910e-01 3.174360e-01 3.197030e-01 3.224860e-01 3.254610e-01
 3.284570e-01 3.312910e-01 3.337830e-01 3.357150e-01 3.369520e-01 3.373770e-01
 3.369520e-01 3.357150e-01 3.337830e-01 3.312910e-01 3.284570e-01 3.254610e-01
 3.224860e-01 3.197030e-01 3.174360e-01 3.177910e-01 3.306660e-01 3.464370e-01
 3.595460e-01 3.651980e-01 3.671500e-01 3.606280e-01 3.463130e-01 3.395170e-01
 3.413840e-01 3.439180e-01 3.468980e-01 3.502110e-01 3.536990e-01 3.572240e-01
 3.605620e-01 3.635020e-01 3.658130e-01 3.672990e-01 3.678120e-01 3.672990e-01
 3.658130e-01 3.635020e-01 3.605620e-01 3.572240e-01 3.536990e-01 3.502110e-01
 3.468980e-01 3.439180e-01 3.413840e-01 3.395170e-01 3.463130e-01 3.606280e-01
 3.671500e-01 3.686520e-01 3.635160e-01 3.644790e-01 3.661470e-01 3.684350e-01
 3.712850e-01 3.746270e-01 3.783310e-01 3.822920e-01 3.862920e-01 3.901320e-01
 3.935480e-01 3.962670e-01 3.980290e-01 3.986390e-01 3.980290e-01 3.962670e-01
 3.935480e-01 3.901320e-01 3.862920e-01 3.822920e-01 3.783310e-01 3.746270e-01
 3.712850e-01 3.684350e-01 3.661470e-01 3.644790e-01 3.635160e-01 3.686520e-01
 3.890140e-01 3.893880e-01 3.905040e-01 3.923360e-01 3.948500e-01 3.980040e-01
 4.017120e-01 4.058530e-01 4.102950e-01 4.148510e-01 4.192620e-01 4.232370e-01
 4.264400e-01 4.285330e-01 4.292620e-01 4.285330e-01 4.264400e-01 4.232370e-01
 4.192620e-01 4.148510e-01 4.102950e-01 4.058530e-01 4.017120e-01 3.980040e-01
 3.948500e-01 3.923360e-01 3.905040e-01 3.893880e-01 3.890140e-01 4.055690e-01
 4.059810e-01 4.072120e-01 4.092450e-01 4.120890e-01 4.156220e-01 4.198190e-01
 4.245840e-01 4.297840e-01 4.352350e-01 4.406650e-01 4.456920e-01 4.498880e-01
 4.527110e-01 4.537120e-01 4.527110e-01 4.498880e-01 4.456920e-01 4.406650e-01
 4.352350e-01 4.297840e-01 4.245840e-01 4.198190e-01 4.156220e-01 4.120890e-01
 4.092450e-01 4.072120e-01 4.059810e-01 4.055690e-01 3.890140e-01 3.893880e-01
 3.905040e-01 3.923360e-01 3.948500e-01 3.980040e-01 4.017120e-01 4.058530e-01
 4.102950e-01 4.148510e-01 4.192620e-01 4.232370e-01 4.264400e-01 4.285330e-01
 4.292620e-01 4.285330e-01 4.264400e-01 4.232370e-01 4.192620e-01 4.148510e-01
 4.102950e-01 4.058530e-01 4.017120e-01 3.980040e-01 3.948500e-01 3.923360e-01
 3.905040e-01 3.893880e-01 3.890140e-01 3.702300e-01 3.705820e-01 3.716240e-01
 3.733380e-01 3.756860e-01 3.786100e-01 3.820320e-01 3.858730e-01 3.899440e-01
 3.940890e-01 3.980660e-01 4.016250e-01 4.044610e-01 4.063050e-01 4.069450e-01
 4.063050e-01 4.044610e-01 4.016250e-01 3.980660e-01 3.940890e-01 3.899440e-01
 3.858730e-01 3.820320e-01 3.786100e-01 3.756860e-01 3.733380e-01 3.716240e-01
 3.705820e-01 3.702300e-01 3.677460e-01 3.608860e-01 3.474910e-01 3.488080e-01
 3.509550e-01 3.536320e-01 3.567520e-01 3.602090e-01 3.638920e-01 3.675790e-01
 3.710990e-01 3.742100e-01 3.766680e-01 3.782500e-01 3.787980e-01 3.782500e-01
 3.766680e-01 3.742100e-01 3.710990e-01 3.675790e-01 3.638920e-01 3.602090e-01
 3.567520e-01 3.536320e-01 3.509550e-01 3.488080e-01 3.474910e-01 3.608860e-01
 3.677460e-01 3.660170e-01 3.599780e-01 3.462090e-01 3.300700e-01 3.253920e-01
 3.275530e-01 3.302910e-01 3.333470e-01 3.365700e-01 3.397970e-01 3.428660e-01
 3.455390e-01 3.476350e-01 3.489720e-01 3.494340e-01 3.489720e-01 3.476350e-01
 3.455390e-01 3.428660e-01 3.397970e-01 3.365700e-01 3.333470e-01 3.302910e-01
 3.275530e-01 3.253920e-01 3.300700e-01 3.462090e-01 3.599780e-01 3.660170e-01
 3.638750e-01 3.587130e-01 3.463710e-01 3.310290e-01 3.152050e-01 3.044760e-01
 3.045610e-01 3.067830e-01 3.093960e-01 3.120830e-01 3.146290e-01 3.168500e-01
 3.185940e-01 3.196960e-01 3.200740e-01 3.196960e-01 3.185940e-01 3.168500e-01
 3.146290e-01 3.120830e-01 3.093960e-01 3.067830e-01 3.045610e-01 3.044760e-01
 3.152050e-01 3.310290e-01 3.463710e-01 3.587130e-01 3.638750e-01 3.614360e-01
 3.571420e-01 3.463870e-01 3.324460e-01 3.174170e-01 3.026560e-01 2.901070e-01
 2.841580e-01 2.840130e-01 2.854490e-01 2.871820e-01 2.888000e-01 2.900890e-01
 2.909270e-01 2.912160e-01 2.909270e-01 2.900890e-01 2.888000e-01 2.871820e-01
 2.854490e-01 2.840130e-01 2.841580e-01 2.901070e-01 3.026560e-01 3.174170e-01
 3.324460e-01 3.463870e-01 3.571420e-01 3.614360e-01 3.588620e-01 3.553430e-01
 3.462100e-01 3.339040e-01 3.202380e-01 3.063270e-01 2.929520e-01 2.808490e-01
 2.710530e-01 2.650300e-01 2.627990e-01 2.624660e-01 2.627130e-01 2.629960e-01
 2.631000e-01 2.629960e-01 2.627130e-01 2.624660e-01 2.627990e-01 2.650300e-01
 2.710530e-01 2.808490e-01 2.929520e-01 3.063270e-01 3.202380e-01 3.339040e-01
 3.462100e-01 3.553430e-01 3.588620e-01 3.562700e-01 3.534440e-01 3.458640e-01
 3.353180e-01 3.232730e-01 3.107150e-01 2.982980e-01 2.864490e-01 2.754750e-01
 2.655960e-01 2.569710e-01 2.496890e-01 2.437550e-01 2.390950e-01 2.359430e-01
 2.390950e-01 2.437550e-01 2.496890e-01 2.569710e-01 2.655960e-01 2.754750e-01
 2.864490e-01 2.982980e-01 3.107150e-01 3.232730e-01 3.353180e-01 3.458640e-01
 3.534440e-01 3.562700e-01 3.537620e-01 3.515380e-01 3.454300e-01 3.366660e-01
 3.264030e-01 3.154480e-01 3.043850e-01 2.935780e-01 2.833100e-01 2.737910e-01
 2.652220e-01 2.578320e-01 2.519570e-01 2.480530e-01 2.466650e-01 2.480530e-01
 2.519570e-01 2.578320e-01 2.652220e-01 2.737910e-01 2.833100e-01 2.935780e-01
 3.043850e-01 3.154480e-01 3.264030e-01 3.366660e-01 3.454300e-01 3.515380e-01
 3.537620e-01 3.514370e-01 3.497310e-01 3.449560e-01 3.379580e-01 3.295530e-01
 3.203840e-01 3.108850e-01 3.013980e-01 2.921980e-01 2.835270e-01 2.756490e-01
 2.688790e-01 2.635870e-01 2.601840e-01 2.590050e-01 2.601840e-01 2.635870e-01
 2.688790e-01 2.756490e-01 2.835270e-01 2.921980e-01 3.013980e-01 3.108850e-01
 3.203840e-01 3.295530e-01 3.379580e-01 3.449560e-01 3.497310e-01 3.514370e-01
 3.493450e-01 3.480860e-01 3.445240e-01 3.392040e-01 3.326770e-01 3.253770e-01
 3.176160e-01 3.096170e-01 3.016460e-01 2.939610e-01 2.868640e-01 2.807100e-01
 2.759070e-01 2.728310e-01 2.717700e-01 2.728310e-01 2.759070e-01 2.807100e-01
 2.868640e-01 2.939610e-01 3.016460e-01 3.096170e-01 3.176160e-01 3.253770e-01
 3.326770e-01 3.392040e-01 3.445240e-01 3.480860e-01 3.493450e-01 3.475050e-01
 3.466330e-01 3.441780e-01 3.404290e-01 3.357340e-01 3.303200e-01 3.243550e-01
 3.179730e-01 3.113410e-01 3.047030e-01 2.984030e-01 2.928400e-01 2.884470e-01
 2.856210e-01 2.846450e-01 2.856210e-01 2.884470e-01 2.928400e-01 2.984030e-01
 3.047030e-01 3.113410e-01 3.179730e-01 3.243550e-01 3.303200e-01 3.357340e-01
 3.404290e-01 3.441780e-01 3.466330e-01 3.475050e-01 3.459850e-01 3.454630e-01
 3.439670e-01 3.416240e-01 3.385870e-01 3.349400e-01 3.307310e-01 3.259780e-01
 3.207760e-01 3.152940e-01 3.098250e-01 3.048390e-01 3.008110e-01 2.981870e-01
 2.972720e-01 2.981870e-01 3.008110e-01 3.048390e-01 3.098250e-01 3.152940e-01
 3.207760e-01 3.259780e-01 3.307310e-01 3.349400e-01 3.385870e-01 3.416240e-01
 3.439670e-01 3.454630e-01 3.459850e-01 3.447590e-01 3.445490e-01 3.438900e-01
 3.427510e-01 3.410080e-01 3.385890e-01 3.355330e-01 3.319700e-01 3.280720e-01
 3.240090e-01 3.198700e-01 3.158630e-01 3.124140e-01 3.100740e-01 3.092470e-01
 3.100740e-01 3.124140e-01 3.158630e-01 3.198700e-01 3.240090e-01 3.280720e-01
 3.319700e-01 3.355330e-01 3.385890e-01 3.410080e-01 3.427510e-01 3.438900e-01
 3.445490e-01 3.447590e-01 3.438160e-01 3.438830e-01 3.439680e-01 3.437210e-01
 3.424510e-01 3.399090e-01 3.364530e-01 3.326110e-01 3.287610e-01 3.251600e-01
 3.220560e-01 3.196280e-01 3.180470e-01 3.173990e-01 3.174220e-01 3.173990e-01
 3.180470e-01 3.196280e-01 3.220560e-01 3.251600e-01 3.287610e-01 3.326110e-01
 3.364530e-01 3.399090e-01 3.424510e-01 3.437210e-01 3.439680e-01 3.438830e-01
 3.438160e-01 3.431380e-01 3.434410e-01 3.441590e-01 3.442940e-01 3.423360e-01
 3.389230e-01 3.348590e-01 3.306040e-01 3.264570e-01 3.226480e-01 3.193670e-01
 3.167690e-01 3.149300e-01 3.138640e-01 3.135270e-01 3.138640e-01 3.149300e-01
 3.167690e-01 3.193670e-01 3.226480e-01 3.264570e-01 3.306040e-01 3.348590e-01
 3.389230e-01 3.423360e-01 3.442940e-01 3.441590e-01 3.434410e-01 3.431380e-01
 3.426840e-01 3.431890e-01 3.444630e-01 3.442640e-01 3.413770e-01 3.375000e-01
 3.331410e-01 3.286690e-01 3.243520e-01 3.203960e-01 3.169830e-01 3.142560e-01
 3.122860e-01 3.111170e-01 3.107290e-01 3.111170e-01 3.122860e-01 3.142560e-01
 3.169830e-01 3.203960e-01 3.243520e-01 3.286690e-01 3.331410e-01 3.375000e-01
 3.413770e-01 3.442640e-01 3.444630e-01 3.431890e-01 3.426840e-01 3.423910e-01
 3.430620e-01 3.448800e-01 3.438980e-01 3.405490e-01 3.364500e-01 3.319700e-01
 3.274120e-01 3.230040e-01 3.189690e-01 3.154850e-01 3.126890e-01 3.106690e-01
 3.094540e-01 3.090500e-01 3.094540e-01 3.106690e-01 3.126890e-01 3.154850e-01
 3.189690e-01 3.230040e-01 3.274120e-01 3.319700e-01 3.364500e-01 3.405490e-01
 3.438980e-01 3.448800e-01 3.430620e-01 3.423910e-01 3.423120e-01 3.430290e-01
 3.452160e-01 3.437080e-01 3.402370e-01 3.360930e-01 3.315730e-01 3.269800e-01
 3.225440e-01 3.184860e-01 3.149850e-01 3.121630e-01 3.101250e-01 3.088960e-01
 3.084890e-01 3.088960e-01 3.101250e-01 3.121630e-01 3.149850e-01 3.184860e-01
 3.225440e-01 3.269800e-01 3.315730e-01 3.360930e-01 3.402370e-01 3.437080e-01
 3.452160e-01 3.430290e-01 3.423120e-01 3.423910e-01 3.430620e-01 3.448800e-01
 3.438980e-01 3.405490e-01 3.364500e-01 3.319700e-01 3.274120e-01 3.230040e-01
 3.189690e-01 3.154850e-01 3.126890e-01 3.106690e-01 3.094540e-01 3.090500e-01
 3.094540e-01 3.106690e-01 3.126890e-01 3.154850e-01 3.189690e-01 3.230040e-01
 3.274120e-01 3.319700e-01 3.364500e-01 3.405490e-01 3.438980e-01 3.448800e-01
 3.430620e-01 3.423910e-01 3.426840e-01 3.431890e-01 3.444630e-01 3.442640e-01
 3.413770e-01 3.375000e-01 3.331410e-01 3.286690e-01 3.243520e-01 3.203960e-01
 3.169830e-01 3.142560e-01 3.122860e-01 3.111170e-01 3.107290e-01 3.111170e-01
 3.122860e-01 3.142560e-01 3.169830e-01 3.203960e-01 3.243520e-01 3.286690e-01
 3.331410e-01 3.375000e-01 3.413770e-01 3.442640e-01 3.444630e-01 3.431890e-01
 3.426840e-01 3.431380e-01 3.434410e-01 3.441590e-01 3.442940e-01 3.423360e-01
 3.389230e-01 3.348590e-01 3.306040e-01 3.264570e-01 3.226480e-01 3.193670e-01
 3.167690e-01 3.149300e-01 3.138640e-01 3.135270e-01 3.138640e-01 3.149300e-01
 3.167690e-01 3.193670e-01 3.226480e-01 3.264570e-01 3.306040e-01 3.348590e-01
 3.389230e-01 3.423360e-01 3.442940e-01 3.441590e-01 3.434410e-01 3.431380e-01
 3.438160e-01 3.438830e-01 3.439680e-01 3.437210e-01 3.424510e-01 3.399090e-01
 3.364530e-01 3.326110e-01 3.287610e-01 3.251600e-01 3.220560e-01 3.196280e-01
 3.180470e-01 3.173990e-01 3.174220e-01 3.173990e-01 3.180470e-01 3.196280e-01
 3.220560e-01 3.251600e-01 3.287610e-01 3.326110e-01 3.364530e-01 3.399090e-01
 3.424510e-01 3.437210e-01 3.439680e-01 3.438830e-01 3.438160e-01 3.447590e-01
 3.445490e-01 3.438900e-01 3.427510e-01 3.410080e-01 3.385890e-01 3.355330e-01
 3.319700e-01 3.280720e-01 3.240090e-01 3.198700e-01 3.158630e-01 3.124140e-01
 3.100740e-01 3.092470e-01 3.100740e-01 3.124140e-01 3.158630e-01 3.198700e-01
 3.240090e-01 3.280720e-01 3.319700e-01 3.355330e-01 3.385890e-01 3.410080e-01
 3.427510e-01 3.438900e-01 3.445490e-01 3.447590e-01 3.459850e-01 3.454630e-01
 3.439670e-01 3.416240e-01 3.385870e-01 3.349400e-01 3.307310e-01 3.259780e-01
 3.207760e-01 3.152940e-01 3.098250e-01 3.048390e-01 3.008110e-01 2.981870e-01
 2.972720e-01 2.981870e-01 3.008110e-01 3.048390e-01 3.098250e-01 3.152940e-01
 3.207760e-01 3.259780e-01 3.307310e-01 3.349400e-01 3.385870e-01 3.416240e-01
 3.439670e-01 3.454630e-01 3.459850e-01 3.475050e-01 3.466330e-01 3.441780e-01
 3.404290e-01 3.357340e-01 3.303200e-01 3.243550e-01 3.179730e-01 3.113410e-01
 3.047030e-01 2.984030e-01 2.928400e-01 2.884470e-01 2.856210e-01 2.846450e-01
 2.856210e-01 2.884470e-01 2.928400e-01 2.984030e-01 3.047030e-01 3.113410e-01
 3.179730e-01 3.243550e-01 3.303200e-01 3.357340e-01 3.404290e-01 3.441780e-01
 3.466330e-01 3.475050e-01 3.493450e-01 3.480860e-01 3.445240e-01 3.392040e-01
 3.326770e-01 3.253770e-01 3.176160e-01 3.096170e-01 3.016460e-01 2.939610e-01
 2.868640e-01 2.807100e-01 2.759070e-01 2.728310e-01 2.717700e-01 2.728310e-01
 2.759070e-01 2.807100e-01 2.868640e-01 2.939610e-01 3.016460e-01 3.096170e-01
 3.176160e-01 3.253770e-01 3.326770e-01 3.392040e-01 3.445240e-01 3.480860e-01
 3.493450e-01 3.514370e-01 3.497310e-01 3.449560e-01 3.379580e-01 3.295530e-01
 3.203840e-01 3.108850e-01 3.013980e-01 2.921980e-01 2.835270e-01 2.756490e-01
 2.688790e-01 2.635870e-01 2.601840e-01 2.590050e-01 2.601840e-01 2.635870e-01
 2.688790e-01 2.756490e-01 2.835270e-01 2.921980e-01 3.013980e-01 3.108850e-01
 3.203840e-01 3.295530e-01 3.379580e-01 3.449560e-01 3.497310e-01 3.514370e-01
 3.537620e-01 3.515380e-01 3.454300e-01 3.366660e-01 3.264030e-01 3.154480e-01
 3.043850e-01 2.935780e-01 2.833100e-01 2.737910e-01 2.652220e-01 2.578320e-01
 2.519570e-01 2.480530e-01 2.466650e-01 2.480530e-01 2.519570e-01 2.578320e-01
 2.652220e-01 2.737910e-01 2.833100e-01 2.935780e-01 3.043850e-01 3.154480e-01
 3.264030e-01 3.366660e-01 3.454300e-01 3.515380e-01 3.537620e-01 3.562700e-01
 3.534440e-01 3.458640e-01 3.353180e-01 3.232730e-01 3.107150e-01 2.982980e-01
 2.864490e-01 2.754750e-01 2.655960e-01 2.569710e-01 2.496890e-01 2.437550e-01
 2.390950e-01 2.359430e-01 2.390950e-01 2.437550e-01 2.496890e-01 2.569710e-01
 2.655960e-01 2.754750e-01 2.864490e-01 2.982980e-01 3.107150e-01 3.232730e-01
 3.353180e-01 3.458640e-01 3.534440e-01 3.562700e-01 3.588620e-01 3.553430e-01
 3.462100e-01 3.339040e-01 3.202380e-01 3.063270e-01 2.929520e-01 2.808490e-01
 2.710530e-01 2.650300e-01 2.627990e-01 2.624660e-01 2.627130e-01 2.629960e-01
 2.631000e-01 2.629960e-01 2.627130e-01 2.624660e-01 2.627990e-01 2.650300e-01
 2.710530e-01 2.808490e-01 2.929520e-01 3.063270e-01 3.202380e-01 3.339040e-01
 3.462100e-01 3.553430e-01 3.588620e-01 3.614360e-01 3.571420e-01 3.463870e-01
 3.324460e-01 3.174170e-01 3.026560e-01 2.901070e-01 2.841580e-01 2.840130e-01
 2.854490e-01 2.871820e-01 2.888000e-01 2.900890e-01 2.909270e-01 2.912160e-01
 2.909270e-01 2.900890e-01 2.888000e-01 2.871820e-01 2.854490e-01 2.840130e-01
 2.841580e-01 2.901070e-01 3.026560e-01 3.174170e-01 3.324460e-01 3.463870e-01
 3.571420e-01 3.614360e-01 3.638750e-01 3.587130e-01 3.463710e-01 3.310290e-01
 3.152050e-01 3.044760e-01 3.045610e-01 3.067830e-01 3.093960e-01 3.120830e-01
 3.146290e-01 3.168500e-01 3.185940e-01 3.196960e-01 3.200740e-01 3.196960e-01
 3.185940e-01 3.168500e-01 3.146290e-01 3.120830e-01 3.093960e-01 3.067830e-01
 3.045610e-01 3.044760e-01 3.152050e-01 3.310290e-01 3.463710e-01 3.587130e-01
 3.638750e-01 3.660170e-01 3.599780e-01 3.462090e-01 3.300700e-01 3.253920e-01
 3.275530e-01 3.302910e-01 3.333470e-01 3.365700e-01 3.397970e-01 3.428660e-01
 3.455390e-01 3.476350e-01 3.489720e-01 3.494340e-01 3.489720e-01 3.476350e-01
 3.455390e-01 3.428660e-01 3.397970e-01 3.365700e-01 3.333470e-01 3.302910e-01
 3.275530e-01 3.253920e-01 3.300700e-01 3.462090e-01 3.599780e-01 3.660170e-01
 3.677460e-01 3.608860e-01 3.474910e-01 3.488080e-01 3.509550e-01 3.536320e-01
 3.567520e-01 3.602090e-01 3.638920e-01 3.675790e-01 3.710990e-01 3.742100e-01
 3.766680e-01 3.782500e-01 3.787980e-01 3.782500e-01 3.766680e-01 3.742100e-01
 3.710990e-01 3.675790e-01 3.638920e-01 3.602090e-01 3.567520e-01 3.536320e-01
 3.509550e-01 3.488080e-01 3.474910e-01 3.608860e-01 3.677460e-01 3.702300e-01
 3.705820e-01 3.716240e-01 3.733380e-01 3.756860e-01 3.786100e-01 3.820320e-01
 3.858730e-01 3.899440e-01 3.940890e-01 3.980660e-01 4.016250e-01 4.044610e-01
 4.063050e-01 4.069450e-01 4.063050e-01 4.044610e-01 4.016250e-01 3.980660e-01
 3.940890e-01 3.899440e-01 3.858730e-01 3.820320e-01 3.786100e-01 3.756860e-01
 3.733380e-01 3.716240e-01 3.705820e-01 3.702300e-01 3.890140e-01 3.893880e-01
 3.905040e-01 3.923360e-01 3.948500e-01 3.980040e-01 4.017120e-01 4.058530e-01
 4.102950e-01 4.148510e-01 4.192620e-01 4.232370e-01 4.264400e-01 4.285330e-01
 4.292620e-01 4.285330e-01 4.264400e-01 4.232370e-01 4.192620e-01 4.148510e-01
 4.102950e-01 4.058530e-01 4.017120e-01 3.980040e-01 3.948500e-01 3.923360e-01
 3.905040e-01 3.893880e-01 3.890140e-01 3.890140e-01 3.893880e-01 3.905040e-01
 3.923360e-01 3.948500e-01 3.980040e-01 4.017120e-01 4.058530e-01 4.102950e-01
 4.148510e-01 4.192620e-01 4.232370e-01 4.264400e-01 4.285330e-01 4.292620e-01
 4.285330e-01 4.264400e-01 4.232370e-01 4.192620e-01 4.148510e-01 4.102950e-01
 4.058530e-01 4.017120e-01 3.980040e-01 3.948500e-01 3.923360e-01 3.905040e-01
 3.893880e-01 3.890140e-01 3.686520e-01 3.635160e-01 3.644790e-01 3.661470e-01
 3.684350e-01 3.712850e-01 3.746270e-01 3.783310e-01 3.822920e-01 3.862920e-01
 3.901320e-01 3.935480e-01 3.962670e-01 3.980290e-01 3.986390e-01 3.980290e-01
 3.962670e-01 3.935480e-01 3.901320e-01 3.862920e-01 3.822920e-01 3.783310e-01
 3.746270e-01 3.712850e-01 3.684350e-01 3.661470e-01 3.644790e-01 3.635160e-01
 3.686520e-01 3.677460e-01 3.608860e-01 3.474910e-01 3.488080e-01 3.509550e-01
 3.536320e-01 3.567520e-01 3.602090e-01 3.638920e-01 3.675790e-01 3.710990e-01
 3.742100e-01 3.766680e-01 3.782500e-01 3.787980e-01 3.782500e-01 3.766680e-01